[
  {
    "instruction": "What is the capital of Finland?",
    "response": "Helsinki"
  },
  {
    "instruction": "How many legs does a spider have?",
    "response": "8"
  },
  {
    "instruction": "Which organ is responsible for filtering blood?",
    "response": "Kidney"
  },
  {
    "instruction": "What is the currency of Japan?",
    "response": "Yen"
  },
  {
    "instruction": "Who wrote '1984'?",
    "response": "George Orwell"
  },
  {
    "instruction": "Who is the author of 'Pride and Prejudice'?",
    "response": "Jane Austen"
  },
  {
    "instruction": "What is the longest bone in the human body?",
    "response": "Femur"
  },
  {
    "instruction": "What is the chemical symbol for oxygen?",
    "response": "O"
  },
  {
    "instruction": "What is the capital of Germany?",
    "response": "Berlin"
  },
  {
    "instruction": "Who developed the theory of relativity?",
    "response": "Albert Einstein"
  },
  {
    "instruction": "Who wrote 'The Odyssey'?",
    "response": "Homer"
  },
  {
    "instruction": "What is the process of plants making food called?",
    "response": "Photosynthesis"
  },
  {
    "instruction": "What is the main gas in Earth\u2019s atmosphere?",
    "response": "Nitrogen"
  },
  {
    "instruction": "What is the capital of South Korea?",
    "response": "Seoul"
  },
  {
    "instruction": "What is the chemical formula for table salt?",
    "response": "NaCl"
  },
  {
    "instruction": "What is the capital of India?",
    "response": "New Delhi"
  },
  {
    "instruction": "What blood type is universal recipient?",
    "response": "AB positive"
  },
  {
    "instruction": "What is the most abundant element in the universe?",
    "response": "Hydrogen"
  },
  {
    "instruction": "What is the largest planet in our solar system?",
    "response": "Jupiter"
  },
  {
    "instruction": "What is the hardest natural substance?",
    "response": "Diamond"
  },
  {
    "instruction": "Who invented the telephone?",
    "response": "Alexander Graham Bell"
  },
  {
    "instruction": "What is the capital of Kenya?",
    "response": "Nairobi"
  },
  {
    "instruction": "What is the name of the longest river?",
    "response": "Nile"
  },
  {
    "instruction": "What is the capital of Egypt?",
    "response": "Cairo"
  },
  {
    "instruction": "Who invented the lightbulb?",
    "response": "Thomas Edison"
  },
  {
    "instruction": "What does DNA stand for?",
    "response": "Deoxyribonucleic acid"
  },
  {
    "instruction": "What is the capital of Nigeria?",
    "response": "Abuja"
  },
  {
    "instruction": "Who discovered penicillin?",
    "response": "Alexander Fleming"
  },
  {
    "instruction": "What is the primary language spoken in Brazil?",
    "response": "Portuguese"
  },
  {
    "instruction": "How many strings does a violin have?",
    "response": "4"
  },
  {
    "instruction": "What is the largest desert in the world?",
    "response": "Sahara"
  },
  {
    "instruction": "How many continents are there?",
    "response": "7"
  },
  {
    "instruction": "What is the speed of light in vacuum (km/s)?",
    "response": "300,000"
  },
  {
    "instruction": "How many seconds are in a minute?",
    "response": "60"
  },
  {
    "instruction": "What organ pumps blood?",
    "response": "Heart"
  },
  {
    "instruction": "What gas do plants use for photosynthesis?",
    "response": "Carbon dioxide"
  },
  {
    "instruction": "What part of the plant conducts photosynthesis?",
    "response": "Leaves"
  },
  {
    "instruction": "What instrument measures temperature?",
    "response": "Thermometer"
  },
  {
    "instruction": "What is the tallest building in the world?",
    "response": "Burj Khalifa"
  },
  {
    "instruction": "Who is known as the father of computers?",
    "response": "Charles Babbage"
  },
  {
    "instruction": "What is the name of the scientist who proposed gravity?",
    "response": "Isaac Newton"
  },
  {
    "instruction": "How many players in a soccer team (on field)?",
    "response": "11"
  },
  {
    "instruction": "What is the square root of 144?",
    "response": "12"
  },
  {
    "instruction": "What is the unit of electric current?",
    "response": "Ampere"
  },
  {
    "instruction": "What galaxy is Earth in?",
    "response": "Milky Way"
  },
  {
    "instruction": "What is the capital of Argentina?",
    "response": "Buenos Aires"
  },
  {
    "instruction": "What is the fastest land animal?",
    "response": "Cheetah"
  },
  {
    "instruction": "What is the hardest known material?",
    "response": "Diamond"
  },
  {
    "instruction": "What is the largest island in the world?",
    "response": "Greenland"
  },
  {
    "instruction": "What is the main ingredient in bread?",
    "response": "Flour"
  },
  {
    "instruction": "What is the freezing point of water in Celsius?",
    "response": "0"
  },
  {
    "instruction": "What blood type is universal donor?",
    "response": "O negative"
  },
  {
    "instruction": "Which planet is closest to the Sun?",
    "response": "Mercury"
  },
  {
    "instruction": "What is the largest ocean on Earth?",
    "response": "Pacific"
  },
  {
    "instruction": "What is the smallest unit of life?",
    "response": "Cell"
  },
  {
    "instruction": "What is the capital of Sweden?",
    "response": "Stockholm"
  },
  {
    "instruction": "What is the capital of Denmark?",
    "response": "Copenhagen"
  },
  {
    "instruction": "What instrument is used to measure earthquakes?",
    "response": "Seismograph"
  },
  {
    "instruction": "What is 3 multiplied by 9?",
    "response": "27"
  },
  {
    "instruction": "What is the closest star to Earth?",
    "response": "Sun"
  },
  {
    "instruction": "What is the main language spoken in Mexico?",
    "response": "Spanish"
  },
  {
    "instruction": "Which planet has rings?",
    "response": "Saturn"
  },
  {
    "instruction": "What do bees produce?",
    "response": "Honey"
  },
  {
    "instruction": "What is the capital of Italy?",
    "response": "Rome"
  },
  {
    "instruction": "What vitamin is produced when skin is exposed to sunlight?",
    "response": "Vitamin D"
  },
  {
    "instruction": "What is the capital of China?",
    "response": "Beijing"
  },
  {
    "instruction": "What is the capital of Norway?",
    "response": "Oslo"
  },
  {
    "instruction": "How many degrees in a right angle?",
    "response": "90"
  },
  {
    "instruction": "How many minutes are in an hour?",
    "response": "60"
  },
  {
    "instruction": "What is the capital of France?",
    "response": "Paris"
  },
  {
    "instruction": "What color is chlorophyll?",
    "response": "Green"
  },
  {
    "instruction": "What is the capital of South Africa?",
    "response": "Pretoria"
  },
  {
    "instruction": "How many bones are in the human body?",
    "response": "206"
  },
  {
    "instruction": "What is the first element on the periodic table?",
    "response": "Hydrogen"
  },
  {
    "instruction": "What is the capital of Russia?",
    "response": "Moscow"
  },
  {
    "instruction": "What is the chemical symbol for gold?",
    "response": "Au"
  },
  {
    "instruction": "What is H2O?",
    "response": "Water"
  },
  {
    "instruction": "How many hours are in a day?",
    "response": "24"
  },
  {
    "instruction": "What is the tallest mountain in the world?",
    "response": "Everest"
  },
  {
    "instruction": "What is the capital of Canada?",
    "response": "Ottawa"
  },
  {
    "instruction": "Which element has the atomic number 1?",
    "response": "Hydrogen"
  },
  {
    "instruction": "What is the primary gas used in balloons?",
    "response": "Helium"
  },
  {
    "instruction": "What is the smallest country in the world?",
    "response": "Vatican City"
  },
  {
    "instruction": "What is the smallest prime number?",
    "response": "2"
  },
  {
    "instruction": "Who painted the Mona Lisa?",
    "response": "Leonardo da Vinci"
  },
  {
    "instruction": "Who painted the Sistine Chapel ceiling?",
    "response": "Michelangelo"
  },
  {
    "instruction": "What is the largest mammal?",
    "response": "Blue whale"
  },
  {
    "instruction": "How many days are there in a leap year?",
    "response": "366"
  },
  {
    "instruction": "What is the capital of Turkey?",
    "response": "Ankara"
  },
  {
    "instruction": "What is the capital of Spain?",
    "response": "Madrid"
  },
  {
    "instruction": "What is the value of Pi (rounded to 2 decimal places)?",
    "response": "3.14"
  },
  {
    "instruction": "What is 10 squared?",
    "response": "100"
  },
  {
    "instruction": "What is the capital of the UK?",
    "response": "London"
  },
  {
    "instruction": "What is the capital of Iceland?",
    "response": "Reykjavik"
  },
  {
    "instruction": "What is the boiling point of water in Celsius?",
    "response": "100"
  },
  {
    "instruction": "What is the capital of Australia?",
    "response": "Canberra"
  },
  {
    "instruction": "What planet is known as the Red Planet?",
    "response": "Mars"
  },
  {
    "instruction": "What do cows drink?",
    "response": "Water"
  },
  {
    "instruction": "How many chromosomes do humans have?",
    "response": "46"
  }
]